    1C
    1UUSER                                                              
    1UDATE              10.june.2026                                    
    1UTIME              21:26:57                                        
    1UHOST                                                              
    1UPGM               CalculiX                                        
    1UVERSION           Version 2.22                             
    1UCOMPILETIME       Mon Aug  5 19:15:25 CEST 2024                    
    1UDIR                                                               
    1UDBN                                                               
    1UMAT    1MATERIALSOLID                                             
    2C                          5396                                     1
 -1         1 5.00000E+00 1.90000E+01 3.50000E+01
 -1         2 5.00000E+00 1.90000E+01 1.00000E+01
 -1         3 5.00000E+00-1.10000E+01 3.50000E+01
 -1         4 5.00000E+00-1.10000E+01 1.00000E+01
 -1         5 5.00000E+00-2.50000E+01 4.50000E+01
 -1         6 5.00000E+01-2.50000E+01 4.50000E+01
 -1         7 5.00000E+01-2.50000E+01 5.00000E+01
 -1         8 5.00000E+00 2.50000E+01 4.50000E+01
 -1         9 5.00000E+01 2.50000E+01 4.50000E+01
 -1        10 5.00000E+01 2.50000E+01 5.00000E+01
 -1        11 5.00000E+00-2.50000E+01 5.00000E-15
 -1        12 5.00000E+00 2.50000E+01-6.00000E-15
 -1        13 0.00000E+00 1.90000E+01 3.50000E+01
 -1        14 0.00000E+00 1.90000E+01 1.00000E+01
 -1        15 0.00000E+00-1.10000E+01 3.50000E+01
 -1        16 0.00000E+00-1.10000E+01 1.00000E+01
 -1        17 0.00000E+00-2.50000E+01 5.00000E+01
 -1        18 0.00000E+00 2.50000E+01 5.00000E+01
 -1        19 0.00000E+00-2.50000E+01 5.00000E-15
 -1        20 0.00000E+00 2.50000E+01-6.00000E-15
 -1        21 5.00000E+01 2.22500E+01 4.50000E+01
 -1        22 5.00000E+01 1.95500E+01 4.50000E+01
 -1        23 5.00000E+01 1.66500E+01 4.50000E+01
 -1        24 5.00000E+01 1.39500E+01 4.50000E+01
 -1        25 5.00000E+01 1.11000E+01 4.50000E+01
 -1        26 5.00000E+01 8.25000E+00 4.50000E+01
 -1        27 5.00000E+01 5.55000E+00 4.50000E+01
 -1        28 5.00000E+01 2.70000E+00 4.50000E+01
 -1        29 5.00000E+01-5.00000E-02 4.50000E+01
 -1        30 5.00000E+01-2.85000E+00 4.50000E+01
 -1        31 5.00000E+01-5.55000E+00 4.50000E+01
 -1        32 5.00000E+01-8.45000E+00 4.50000E+01
 -1        33 5.00000E+01-1.12000E+01 4.50000E+01
 -1        34 5.00000E+01-1.39500E+01 4.50000E+01
 -1        35 5.00000E+01-1.66500E+01 4.50000E+01
 -1        36 5.00000E+01-1.96000E+01 4.50000E+01
 -1        37 5.00000E+01-2.23000E+01 4.50000E+01
 -1        38 5.00000E+00 2.17500E+01 4.50000E+01
 -1        39 5.00000E+00 1.77500E+01 4.50000E+01
 -1        40 5.00000E+00 1.35500E+01 4.50000E+01
 -1        41 5.00000E+00 9.30000E+00 4.50000E+01
 -1        42 5.00000E+00 5.55000E+00 4.50000E+01
 -1        43 5.00000E+00 1.50000E+00 4.50000E+01
 -1        44 5.00000E+00-2.05000E+00 4.50000E+01
 -1        45 5.00000E+00-5.65000E+00 4.50000E+01
 -1        46 5.00000E+00-9.40000E+00 4.50000E+01
 -1        47 5.00000E+00-1.36500E+01 4.50000E+01
 -1        48 5.00000E+00-1.78500E+01 4.50000E+01
 -1        49 5.00000E+00-2.20500E+01 4.50000E+01
 -1        50 4.72100E+01 2.50000E+01 4.50000E+01
 -1        51 4.37000E+01 2.50000E+01 4.50000E+01
 -1        52 3.89750E+01 2.50000E+01 4.50000E+01
 -1        53 3.26750E+01 2.50000E+01 4.50000E+01
 -1        54 2.47100E+01 2.50000E+01 4.50000E+01
 -1        55 1.70600E+01 2.50000E+01 4.50000E+01
 -1        56 1.17950E+01 2.50000E+01 4.50000E+01
 -1        57 7.92500E+00 2.50000E+01 4.50000E+01
 -1        58 4.71200E+01-2.50000E+01 4.50000E+01
 -1        59 4.38800E+01-2.50000E+01 4.50000E+01
 -1        60 3.94700E+01-2.50000E+01 4.50000E+01
 -1        61 3.22700E+01-2.50000E+01 4.50000E+01
 -1        62 2.26850E+01-2.50000E+01 4.50000E+01
 -1        63 1.60700E+01-2.50000E+01 4.50000E+01
 -1        64 1.12550E+01-2.50000E+01 4.50000E+01
 -1        65 7.74500E+00-2.50000E+01 4.50000E+01
 -1        66 5.00000E+01 2.11000E+01 5.00000E+01
 -1        67 5.00000E+01 1.72000E+01 5.00000E+01
 -1        68 5.00000E+01 1.26000E+01 5.00000E+01
 -1        69 5.00000E+01 8.50000E+00 5.00000E+01
 -1        70 5.00000E+01 3.85000E+00 5.00000E+01
 -1        71 5.00000E+01-2.00000E-01 5.00000E+01
 -1        72 5.00000E+01-4.10000E+00 5.00000E+01
 -1        73 5.00000E+01-8.90000E+00 5.00000E+01
 -1        74 5.00000E+01-1.28000E+01 5.00000E+01
 -1        75 5.00000E+01-1.67000E+01 5.00000E+01
 -1        76 5.00000E+01-2.11500E+01 5.00000E+01
 -1        77 5.00000E+01 2.50000E+01 4.72650E+01
 -1        78 5.00000E+01-2.50000E+01 4.72950E+01
 -1        79 5.00000E+00 2.50000E+01 4.21650E+01
 -1        80 5.00000E+00 2.50000E+01 3.94200E+01
 -1        81 5.00000E+00 2.50000E+01 3.64950E+01
 -1        82 5.00000E+00 2.50000E+01 3.37050E+01
 -1        83 5.00000E+00 2.50000E+01 3.09600E+01
 -1        84 5.00000E+00 2.50000E+01 2.82150E+01
 -1        85 5.00000E+00 2.50000E+01 2.52450E+01
 -1        86 5.00000E+00 2.50000E+01 2.25000E+01
 -1        87 5.00000E+00 2.50000E+01 1.97100E+01
 -1        88 5.00000E+00 2.50000E+01 1.67850E+01
 -1        89 5.00000E+00 2.50000E+01 1.40400E+01
 -1        90 5.00000E+00 2.50000E+01 1.12950E+01
 -1        91 5.00000E+00 2.50000E+01 8.46000E+00
 -1        92 5.00000E+00 2.50000E+01 5.58000E+00
 -1        93 5.00000E+00 2.50000E+01 2.83500E+00
 -1        94 5.00000E+00-2.50000E+01 4.21650E+01
 -1        95 5.00000E+00-2.50000E+01 3.94200E+01
 -1        96 5.00000E+00-2.50000E+01 3.64950E+01
 -1        97 5.00000E+00-2.50000E+01 3.37050E+01
 -1        98 5.00000E+00-2.50000E+01 3.09600E+01
 -1        99 5.00000E+00-2.50000E+01 2.82150E+01
 -1       100 5.00000E+00-2.50000E+01 2.52450E+01
 -1       101 5.00000E+00-2.50000E+01 2.25000E+01
 -1       102 5.00000E+00-2.50000E+01 1.97100E+01
 -1       103 5.00000E+00-2.50000E+01 1.67850E+01
 -1       104 5.00000E+00-2.50000E+01 1.40400E+01
 -1       105 5.00000E+00-2.50000E+01 1.12950E+01
 -1       106 5.00000E+00-2.50000E+01 8.46000E+00
 -1       107 5.00000E+00-2.50000E+01 5.58000E+00
 -1       108 5.00000E+00-2.50000E+01 2.83500E+00
 -1       109 5.00000E+00 2.17000E+01-4.82400E-15
 -1       110 5.00000E+00 1.76500E+01-3.93300E-15
 -1       111 5.00000E+00 1.35000E+01-3.02000E-15
 -1       112 5.00000E+00 9.35000E+00-2.10700E-15
 -1       113 5.00000E+00 2.90000E+00-6.88000E-16
 -1       114 5.00000E+00-4.70000E+00 9.84000E-16
 -1       115 5.00000E+00-1.00000E+01 2.15000E-15
 -1       116 5.00000E+00-1.41500E+01 3.06300E-15
 -1       117 5.00000E+00-1.82500E+01 3.96500E-15
 -1       118 5.00000E+00-2.22000E+01 4.83400E-15
 -1       119 5.00000E+00-1.14591E+01 3.68606E+01
 -1       120 5.00000E+00-1.27309E+01 3.82941E+01
 -1       121 5.00000E+00-1.45236E+01 3.89715E+01
 -1       122 5.00000E+00-1.64256E+01 3.87373E+01
 -1       123 5.00000E+00-1.80004E+01 3.76452E+01
 -1       124 5.00000E+00-1.88865E+01 3.59460E+01
 -1       125 5.00000E+00-1.88805E+01 3.40296E+01
 -1       126 5.00000E+00-1.79838E+01 3.23360E+01
 -1       127 5.00000E+00-1.64021E+01 3.12538E+01
 -1       128 5.00000E+00-1.44987E+01 3.10315E+01
 -1       129 5.00000E+00-1.27103E+01 3.17202E+01
 -1       130 5.00000E+00-1.14475E+01 3.31617E+01
 -1       131 5.00000E+00-1.14708E+01 1.18828E+01
 -1       132 5.00000E+00-1.27309E+01 1.32941E+01
 -1       133 5.00000E+00-1.45236E+01 1.39715E+01
 -1       134 5.00000E+00-1.64256E+01 1.37373E+01
 -1       135 5.00000E+00-1.80004E+01 1.26452E+01
 -1       136 5.00000E+00-1.88865E+01 1.09460E+01
 -1       137 5.00000E+00-1.88865E+01 9.05400E+00
 -1       138 5.00000E+00-1.80004E+01 7.35475E+00
 -1       139 5.00000E+00-1.64256E+01 6.26268E+00
 -1       140 5.00000E+00-1.45486E+01 6.02555E+00
 -1       141 5.00000E+00-1.27517E+01 6.69168E+00
 -1       142 5.00000E+00-1.14708E+01 8.11718E+00
 -1       143 5.00000E+00 1.85409E+01 3.68606E+01
 -1       144 5.00000E+00 1.72691E+01 3.82941E+01
 -1       145 5.00000E+00 1.54764E+01 3.89715E+01
 -1       146 5.00000E+00 1.35744E+01 3.87373E+01
 -1       147 5.00000E+00 1.19996E+01 3.76452E+01
 -1       148 5.00000E+00 1.11135E+01 3.59460E+01
 -1       149 5.00000E+00 1.11195E+01 3.40296E+01
 -1       150 5.00000E+00 1.20162E+01 3.23360E+01
 -1       151 5.00000E+00 1.35979E+01 3.12538E+01
 -1       152 5.00000E+00 1.55013E+01 3.10315E+01
 -1       153 5.00000E+00 1.72897E+01 3.17202E+01
 -1       154 5.00000E+00 1.85525E+01 3.31617E+01
 -1       155 5.00000E+00 1.85409E+01 1.18606E+01
 -1       156 5.00000E+00 1.72691E+01 1.32941E+01
 -1       157 5.00000E+00 1.54764E+01 1.39715E+01
 -1       158 5.00000E+00 1.35744E+01 1.37373E+01
 -1       159 5.00000E+00 1.19996E+01 1.26452E+01
 -1       160 5.00000E+00 1.11135E+01 1.09460E+01
 -1       161 5.00000E+00 1.11195E+01 9.02960E+00
 -1       162 5.00000E+00 1.20162E+01 7.33595E+00
 -1       163 5.00000E+00 1.35979E+01 6.25380E+00
 -1       164 5.00000E+00 1.55013E+01 6.03154E+00
 -1       165 5.00000E+00 1.72897E+01 6.72019E+00
 -1       166 5.00000E+00 1.85525E+01 8.16168E+00
 -1       167 3.33000E+00 1.90000E+01 3.50000E+01
 -1       168 1.66500E+00 1.90000E+01 3.50000E+01
 -1       169 0.00000E+00 1.85409E+01 3.68606E+01
 -1       170 0.00000E+00 1.72691E+01 3.82941E+01
 -1       171 0.00000E+00 1.54764E+01 3.89715E+01
 -1       172 0.00000E+00 1.35744E+01 3.87373E+01
 -1       173 0.00000E+00 1.19996E+01 3.76452E+01
 -1       174 0.00000E+00 1.11135E+01 3.59460E+01
 -1       175 0.00000E+00 1.11195E+01 3.40296E+01
 -1       176 0.00000E+00 1.20162E+01 3.23360E+01
 -1       177 0.00000E+00 1.35979E+01 3.12538E+01
 -1       178 0.00000E+00 1.55013E+01 3.10315E+01
 -1       179 0.00000E+00 1.72897E+01 3.17202E+01
 -1       180 0.00000E+00 1.85525E+01 3.31617E+01
 -1       181 3.33000E+00 1.90000E+01 1.00000E+01
 -1       182 1.66500E+00 1.90000E+01 1.00000E+01
 -1       183 0.00000E+00 1.85409E+01 1.18606E+01
 -1       184 0.00000E+00 1.72691E+01 1.32941E+01
 -1       185 0.00000E+00 1.54764E+01 1.39715E+01
 -1       186 0.00000E+00 1.35744E+01 1.37373E+01
 -1       187 0.00000E+00 1.19996E+01 1.26452E+01
 -1       188 0.00000E+00 1.11135E+01 1.09460E+01
 -1       189 0.00000E+00 1.11195E+01 9.02960E+00
 -1       190 0.00000E+00 1.20162E+01 7.33595E+00
 -1       191 0.00000E+00 1.35979E+01 6.25380E+00
 -1       192 0.00000E+00 1.55013E+01 6.03154E+00
 -1       193 0.00000E+00 1.72897E+01 6.72019E+00
 -1       194 0.00000E+00 1.85525E+01 8.16168E+00
 -1       195 3.33000E+00-1.10000E+01 3.50000E+01
 -1       196 1.66500E+00-1.10000E+01 3.50000E+01
 -1       197 0.00000E+00-1.14591E+01 3.68606E+01
 -1       198 0.00000E+00-1.27309E+01 3.82941E+01
 -1       199 0.00000E+00-1.45236E+01 3.89715E+01
 -1       200 0.00000E+00-1.64256E+01 3.87373E+01
 -1       201 0.00000E+00-1.80004E+01 3.76452E+01
 -1       202 0.00000E+00-1.88865E+01 3.59460E+01
 -1       203 0.00000E+00-1.88805E+01 3.40296E+01
 -1       204 0.00000E+00-1.79838E+01 3.23360E+01
 -1       205 0.00000E+00-1.64021E+01 3.12538E+01
 -1       206 0.00000E+00-1.44987E+01 3.10315E+01
 -1       207 0.00000E+00-1.27103E+01 3.17202E+01
 -1       208 0.00000E+00-1.14475E+01 3.31617E+01
 -1       209 3.33000E+00-1.10000E+01 1.00000E+01
 -1       210 1.66500E+00-1.10000E+01 1.00000E+01
 -1       211 0.00000E+00-1.14708E+01 1.18828E+01
 -1       212 0.00000E+00-1.27309E+01 1.32941E+01
 -1       213 0.00000E+00-1.45236E+01 1.39715E+01
 -1       214 0.00000E+00-1.64256E+01 1.37373E+01
 -1       215 0.00000E+00-1.80004E+01 1.26452E+01
 -1       216 0.00000E+00-1.88865E+01 1.09460E+01
 -1       217 0.00000E+00-1.88865E+01 9.05400E+00
 -1       218 0.00000E+00-1.80004E+01 7.35475E+00
 -1       219 0.00000E+00-1.64256E+01 6.26268E+00
 -1       220 0.00000E+00-1.45486E+01 6.02555E+00
 -1       221 0.00000E+00-1.27517E+01 6.69168E+00
 -1       222 0.00000E+00-1.14708E+01 8.11718E+00
 -1       223 0.00000E+00 1.98500E+01 5.00000E+01
 -1       224 0.00000E+00 1.26000E+01 5.00000E+01
 -1       225 0.00000E+00 6.65000E+00 5.00000E+01
 -1       226 0.00000E+00-1.15000E+00 5.00000E+01
 -1       227 0.00000E+00-7.00000E+00 5.00000E+01
 -1       228 0.00000E+00-1.32000E+01 5.00000E+01
 -1       229 0.00000E+00-2.02500E+01 5.00000E+01
 -1       230 4.10000E+00 2.50000E+01 5.00000E+01
 -1       231 8.20000E+00 2.50000E+01 5.00000E+01
 -1       232 1.37500E+01 2.50000E+01 5.00000E+01
 -1       233 2.16500E+01 2.50000E+01 5.00000E+01
 -1       234 3.15500E+01 2.50000E+01 5.00000E+01
 -1       235 3.97500E+01 2.50000E+01 5.00000E+01
 -1       236 4.59500E+01 2.50000E+01 5.00000E+01
 -1       237 4.55000E+00-2.50000E+01 5.00000E+01
 -1       238 9.50000E+00-2.50000E+01 5.00000E+01
 -1       239 1.66500E+01-2.50000E+01 5.00000E+01
 -1       240 2.75000E+01-2.50000E+01 5.00000E+01
 -1       241 3.79000E+01-2.50000E+01 5.00000E+01
 -1       242 4.53000E+01-2.50000E+01 5.00000E+01
 -1       243 0.00000E+00-2.50000E+01 3.95000E+00
 -1       244 0.00000E+00-2.50000E+01 8.10000E+00
 -1       245 0.00000E+00-2.50000E+01 1.24000E+01
 -1       246 0.00000E+00-2.50000E+01 1.67000E+01
 -1       247 0.00000E+00-2.50000E+01 2.06000E+01
 -1       248 0.00000E+00-2.50000E+01 2.45500E+01
 -1       249 0.00000E+00-2.50000E+01 2.85000E+01
 -1       250 0.00000E+00-2.50000E+01 3.28000E+01
 -1       251 0.00000E+00-2.50000E+01 3.70500E+01
 -1       252 0.00000E+00-2.50000E+01 4.13500E+01
 -1       253 0.00000E+00-2.50000E+01 4.57500E+01
 -1       254 2.88000E+00-2.50000E+01 5.00000E-15
 -1       255 0.00000E+00 2.50000E+01 3.70000E+00
 -1       256 0.00000E+00 2.50000E+01 7.60000E+00
 -1       257 0.00000E+00 2.50000E+01 1.16000E+01
 -1       258 0.00000E+00 2.50000E+01 1.54500E+01
 -1       259 0.00000E+00 2.50000E+01 1.91500E+01
 -1       260 0.00000E+00 2.50000E+01 2.28000E+01
 -1       261 0.00000E+00 2.50000E+01 2.65000E+01
 -1       262 0.00000E+00 2.50000E+01 3.02000E+01
 -1       263 0.00000E+00 2.50000E+01 3.41000E+01
 -1       264 0.00000E+00 2.50000E+01 3.81500E+01
 -1       265 0.00000E+00 2.50000E+01 4.19500E+01
 -1       266 0.00000E+00 2.50000E+01 4.60000E+01
 -1       267 2.88000E+00 2.50000E+01-6.00000E-15
 -1       268 0.00000E+00 2.05500E+01-4.57100E-15
 -1       269 0.00000E+00 1.62500E+01-3.62500E-15
 -1       270 0.00000E+00 1.19500E+01-2.67900E-15
 -1       271 0.00000E+00 7.10000E+00-1.61200E-15
 -1       272 0.00000E+00-4.50000E-01 4.90000E-17
 -1       273 0.00000E+00-7.60000E+00 1.62200E-15
 -1       274 0.00000E+00-1.21000E+01 2.61200E-15
 -1       275 0.00000E+00-1.63500E+01 3.54700E-15
 -1       276 0.00000E+00-2.08000E+01 4.52600E-15
 -1       277 4.74418E+01 2.08689E+01 4.50000E+01
 -1       278 4.76274E+01 1.79910E+01 4.50000E+01
 -1       279 4.76678E+01 1.52733E+01 4.50000E+01
 -1       280 4.76570E+01 1.25754E+01 4.50000E+01
 -1       281 4.75524E+01 9.83255E+00 4.50000E+01
 -1       282 4.74523E+01 7.05462E+00 4.50000E+01
 -1       283 4.73283E+01 4.23306E+00 4.50000E+01
 -1       284 4.72492E+01 1.35071E+00 4.50000E+01
 -1       285 4.72381E+01-1.54152E+00 4.50000E+01
 -1       286 4.72622E+01-4.42471E+00 4.50000E+01
 -1       287 4.73517E+01-7.31914E+00 4.50000E+01
 -1       288 4.75131E+01-1.01537E+01 4.50000E+01
 -1       289 4.76691E+01-1.28973E+01 4.50000E+01
 -1       290 4.77950E+01-1.55731E+01 4.50000E+01
 -1       291 4.78111E+01-1.83288E+01 4.50000E+01
 -1       292 4.79232E+01-2.09859E+01 4.50000E+01
 -1       293 7.62083E+00 1.90619E+01 4.50000E+01
 -1       294 8.10159E+00 1.59010E+01 4.50000E+01
 -1       295 8.65205E+00 1.19173E+01 4.50000E+01
 -1       296 8.80307E+00 7.69249E+00 4.50000E+01
 -1       297 8.72120E+00 3.60962E+00 4.50000E+01
 -1       298 8.53580E+00-2.40131E-01 4.50000E+01
 -1       299 8.55497E+00-3.92619E+00 4.50000E+01
 -1       300 8.71021E+00-7.75026E+00 4.50000E+01
 -1       301 8.78878E+00-1.18803E+01 4.50000E+01
 -1       302 8.68242E+00-1.61551E+01 4.50000E+01
 -1       303 7.87864E+00-1.95935E+01 4.50000E+01
 -1       304 4.44369E+01 2.16790E+01 4.50000E+01
 -1       305 4.06416E+01 2.16539E+01 4.50000E+01
 -1       306 3.63116E+01 2.17331E+01 4.50000E+01
 -1       307 2.17891E+01 1.93584E+01 4.50000E+01
 -1       308 1.42915E+01 1.98354E+01 4.50000E+01
 -1       309 4.08326E+01-2.02731E+01 4.50000E+01
 -1       310 3.58317E+01-2.01304E+01 4.50000E+01
 -1       311 1.86335E+01-1.84992E+01 4.50000E+01
 -1       312 1.20319E+01-2.00870E+01 4.50000E+01
 -1       313 3.09573E+01 1.92046E+01 4.50000E+01
 -1       314 9.53483E+00 2.16156E+01 4.50000E+01
 -1       315 4.50260E+01-2.02551E+01 4.50000E+01
 -1       316 2.85383E+01-1.69501E+01 4.50000E+01
 -1       317 8.85678E+00-2.23632E+01 4.50000E+01
 -1       318 4.51394E+01 1.65343E+01 4.50000E+01
 -1       319 4.54266E+01 1.91262E+01 4.50000E+01
 -1       320 4.51515E+01 1.13847E+01 4.50000E+01
 -1       321 4.50594E+01 8.62524E+00 4.50000E+01
 -1       322 4.47877E+01 5.85160E+00 4.50000E+01
 -1       323 4.44690E+01 2.90366E+00 4.50000E+01
 -1       324 4.44410E+01-1.41679E-01 4.50000E+01
 -1       325 4.44665E+01-3.14916E+00 4.50000E+01
 -1       326 4.45042E+01-6.19086E+00 4.50000E+01
 -1       327 4.48624E+01-9.16080E+00 4.50000E+01
 -1       328 4.52574E+01-1.19130E+01 4.50000E+01
 -1       329 4.54878E+01-1.45800E+01 4.50000E+01
 -1       330 4.58110E+01-1.70414E+01 4.50000E+01
 -1       331 1.83592E+01 1.34769E+01 4.50000E+01
 -1       332 1.21187E+01 1.49062E+01 4.50000E+01
 -1       333 1.26850E+01 5.64903E+00 4.50000E+01
 -1       334 1.23476E+01 1.44843E+00 4.50000E+01
 -1       335 1.16344E+01-2.08984E+00 4.50000E+01
 -1       336 1.26041E+01-5.69753E+00 4.50000E+01
 -1       337 1.23663E+01-9.89170E+00 4.50000E+01
 -1       338 1.32471E+01-1.45000E+01 4.50000E+01
 -1       339 3.79152E+01 1.77957E+01 4.50000E+01
 -1       340 3.89200E+01-1.33164E+01 4.50000E+01
 -1       341 2.63939E+01 1.37203E+01 4.50000E+01
 -1       342 4.55426E+01 1.39266E+01 4.50000E+01
 -1       343 1.03861E+01 1.82530E+01 4.50000E+01
 -1       344 1.28359E+01 1.01924E+01 4.50000E+01
 -1       345 4.25350E+01 1.84998E+01 4.50000E+01
 -1       346 3.41318E+01 1.30781E+01 4.50000E+01
 -1       347 4.31164E+01-1.66499E+01 4.50000E+01
 -1       348 1.91412E+01-9.33844E+00 4.50000E+01
 -1       349 3.14327E+01-7.65345E+00 4.50000E+01
 -1       350 4.16251E+01 4.81605E+00 4.50000E+01
 -1       351 4.27376E+01 1.00788E+01 4.50000E+01
 -1       352 4.12995E+01 1.31664E+00 4.50000E+01
 -1       353 4.18695E+01-1.76743E+00 4.50000E+01
 -1       354 4.13766E+01-4.86725E+00 4.50000E+01
 -1       355 4.16784E+01-8.35205E+00 4.50000E+01
 -1       356 4.28651E+01-1.11025E+01 4.50000E+01
 -1       357 4.32067E+01-1.35780E+01 4.50000E+01
 -1       358 4.26815E+01 7.53884E+00 4.50000E+01
 -1       359 1.62058E+01-2.01738E+00 4.50000E+01
 -1       360 1.64336E+01 3.17360E+00 4.50000E+01
 -1       361 4.18532E+01 1.38175E+01 4.50000E+01
 -1       362 1.70041E+01 7.73937E+00 4.50000E+01
 -1       363 2.67130E+01 3.93728E+00 4.50000E+01
 -1       364 3.76733E+01 3.31881E+00 4.50000E+01
 -1       365 3.79872E+01-7.21337E+00 4.50000E+01
 -1       366 3.74996E+01-2.10504E+00 4.50000E+01
 -1       367 3.89812E+01 8.63674E+00 4.50000E+01
 -1       368 5.00000E+01 2.04725E+01 4.73878E+01
 -1       369 5.00000E+01 1.51722E+01 4.73369E+01
 -1       370 5.00000E+01 1.25431E+01 4.69708E+01
 -1       371 5.00000E+01 9.89684E+00 4.74037E+01
 -1       372 5.00000E+01 6.75815E+00 4.74201E+01
 -1       373 5.00000E+01 4.05727E+00 4.69888E+01
 -1       374 5.00000E+01 1.41950E+00 4.74024E+01
 -1       375 5.00000E+01-1.61500E+00 4.73984E+01
 -1       376 5.00000E+01-4.21077E+00 4.69888E+01
 -1       377 5.00000E+01-6.93382E+00 4.74232E+01
 -1       378 5.00000E+01-1.00819E+01 4.73972E+01
 -1       379 5.00000E+01-1.26491E+01 4.69718E+01
 -1       380 5.00000E+01-1.52245E+01 4.73973E+01
 -1       381 5.00000E+01-1.83606E+01 4.74286E+01
 -1       382 5.00000E+01 1.78128E+01 4.69627E+01
 -1       383 5.00000E+01-2.11934E+01 4.70535E+01
 -1       384 5.00000E+00 1.90682E+01 4.20292E+01
 -1       385 5.00000E+00 1.16793E+01 4.20848E+01
 -1       386 5.00000E+00 7.97259E+00 4.20128E+01
 -1       387 5.00000E+00 4.11380E+00 4.08663E+01
 -1       388 5.00000E+00-2.32862E-01 4.14911E+01
 -1       389 5.00000E+00-3.87300E+00 4.17521E+01
 -1       390 5.00000E+00-7.04988E+00 4.20130E+01
 -1       391 5.00000E+00-1.95911E+01 4.16089E+01
 -1       392 5.00000E+00 2.21776E+01 4.08412E+01
 -1       393 5.00000E+00 2.25287E+01 3.78353E+01
 -1       394 5.00000E+00 2.27145E+01 3.50855E+01
 -1       395 5.00000E+00 2.25927E+01 3.23956E+01
 -1       396 5.00000E+00 2.23924E+01 2.96118E+01
 -1       397 5.00000E+00 2.23341E+01 2.67275E+01
 -1       398 5.00000E+00 2.23376E+01 2.38484E+01
 -1       399 5.00000E+00 2.23710E+01 2.10114E+01
 -1       400 5.00000E+00 2.24039E+01 1.81715E+01
 -1       401 5.00000E+00 2.24404E+01 1.53422E+01
 -1       402 5.00000E+00 2.25976E+01 1.25791E+01
 -1       403 5.00000E+00 2.26835E+01 9.85734E+00
 -1       404 5.00000E+00 2.23544E+01 6.86177E+00
 -1       405 5.00000E+00 2.30937E+01 4.41863E+00
 -1       406 5.00000E+00 2.24216E+01 2.32899E+00
 -1       407 5.00000E+00-2.25052E+01 4.05667E+01
 -1       408 5.00000E+00-2.30789E+01 3.78913E+01
 -1       409 5.00000E+00-2.26644E+01 3.50729E+01
 -1       410 5.00000E+00-2.31362E+01 3.23358E+01
 -1       411 5.00000E+00-2.27053E+01 2.98019E+01
 -1       412 5.00000E+00-2.25373E+01 2.68028E+01
 -1       413 5.00000E+00-2.24814E+01 2.38196E+01
 -1       414 5.00000E+00-2.25231E+01 2.09002E+01
 -1       415 5.00000E+00-2.26211E+01 1.79942E+01
 -1       416 5.00000E+00-2.27684E+01 1.51144E+01
 -1       417 5.00000E+00-2.31609E+01 1.26346E+01
 -1       418 5.00000E+00-2.26872E+01 9.91245E+00
 -1       419 5.00000E+00-2.31572E+01 7.13222E+00
 -1       420 5.00000E+00-2.27927E+01 4.60127E+00
 -1       421 5.00000E+00-2.30239E+01 2.10230E+00
 -1       422 5.00000E+00 1.92832E+01 2.26138E+00
 -1       423 5.00000E+00 1.15601E+01 2.69896E+00
 -1       424 5.00000E+00 6.23009E+00 3.66084E+00
 -1       425 5.00000E+00-8.94790E-01 3.70448E+00
 -1       426 5.00000E+00-7.16308E+00 3.67856E+00
 -1       427 5.00000E+00-1.57193E+01 3.56102E+00
 -1       428 5.00000E+00-9.06943E+00 3.65281E+01
 -1       429 5.00000E+00-1.00458E+01 3.99042E+01
 -1       430 5.00000E+00-1.32435E+01 4.09160E+01
 -1       431 5.00000E+00-1.62287E+01 4.12491E+01
 -1       432 5.00000E+00-1.81813E+01 3.95150E+01
 -1       433 5.00000E+00-2.04207E+01 3.78666E+01
 -1       434 5.00000E+00-2.04186E+01 3.50164E+01
 -1       435 5.00000E+00-2.04982E+01 3.21768E+01
 -1       436 5.00000E+00-1.80086E+01 3.00184E+01
 -1       437 5.00000E+00-1.55827E+01 2.93153E+01
 -1       438 5.00000E+00-1.29092E+01 2.93509E+01
 -1       439 5.00000E+00-1.03665E+01 3.09223E+01
 -1       440 5.00000E+00-8.90297E+00 3.36135E+01
 -1       441 5.00000E+00-8.91754E+00 1.13041E+01
 -1       442 5.00000E+00-1.03365E+01 1.41650E+01
 -1       443 5.00000E+00-1.30728E+01 1.58754E+01
 -1       444 5.00000E+00-1.58735E+01 1.57260E+01
 -1       445 5.00000E+00-1.81849E+01 1.48315E+01
 -1       446 5.00000E+00-2.05377E+01 1.27693E+01
 -1       447 5.00000E+00-2.04352E+01 9.96976E+00
 -1       448 5.00000E+00-2.05203E+01 7.14744E+00
 -1       449 5.00000E+00-1.82690E+01 5.36807E+00
 -1       450 5.00000E+00-1.29759E+01 4.88497E+00
 -1       451 5.00000E+00-1.05048E+01 5.91781E+00
 -1       452 5.00000E+00-9.38028E+00 8.57774E+00
 -1       453 5.00000E+00 2.05488E+01 3.62482E+01
 -1       454 5.00000E+00 1.96245E+01 3.88871E+01
 -1       455 5.00000E+00 1.73932E+01 4.01217E+01
 -1       456 5.00000E+00 1.36648E+01 4.03490E+01
 -1       457 5.00000E+00 1.18104E+01 3.94710E+01
 -1       458 5.00000E+00 1.01586E+01 3.79104E+01
 -1       459 5.00000E+00 8.82601E+00 3.54924E+01
 -1       460 5.00000E+00 9.44647E+00 3.22434E+01
 -1       461 5.00000E+00 1.16735E+01 2.98139E+01
 -1       462 5.00000E+00 1.45719E+01 2.91908E+01
 -1       463 5.00000E+00 1.71956E+01 2.96154E+01
 -1       464 5.00000E+00 1.97356E+01 3.12001E+01
 -1       465 5.00000E+00 2.05728E+01 3.38465E+01
 -1       466 5.00000E+00 2.05631E+01 1.11366E+01
 -1       467 5.00000E+00 1.97740E+01 1.37709E+01
 -1       468 5.00000E+00 1.73576E+01 1.53712E+01
 -1       469 5.00000E+00 1.46288E+01 1.61832E+01
 -1       470 5.00000E+00 1.15837E+01 1.52741E+01
 -1       471 5.00000E+00 9.45630E+00 1.30141E+01
 -1       472 5.00000E+00 8.82075E+00 1.00564E+01
 -1       473 5.00000E+00 9.76765E+00 7.27723E+00
 -1       474 5.00000E+00 1.17667E+01 5.41223E+00
 -1       475 5.00000E+00 1.42236E+01 4.41277E+00
 -1       476 5.00000E+00 1.74336E+01 4.58435E+00
 -1       477 5.00000E+00 1.95082E+01 6.53853E+00
 -1       478 5.00000E+00 2.04794E+01 8.74477E+00
 -1       479 5.00000E+00 1.55392E+01 4.20436E+01
 -1       480 5.00000E+00 1.56827E+01 2.25181E+00
 -1       481 5.00000E+00-1.17528E+01 2.77200E+00
 -1       482 5.00000E+00-2.01909E+01 3.04162E+00
 -1       483 5.00000E+00-6.14953E+00 3.84871E+01
 -1       484 5.00000E+00-2.33511E+00 3.84580E+01
 -1       485 5.00000E+00 1.96058E+01 2.52531E+01
 -1       486 5.00000E+00 1.97065E+01 2.23421E+01
 -1       487 5.00000E+00 1.97815E+01 1.94961E+01
 -1       488 5.00000E+00 2.07069E+01 4.46000E+00
 -1       489 5.00000E+00-2.01527E+01 2.84433E+01
 -1       490 5.00000E+00-1.98935E+01 2.52836E+01
 -1       491 5.00000E+00-1.99367E+01 2.21705E+01
 -1       492 5.00000E+00-2.01173E+01 1.91866E+01
 -1       493 5.00000E+00-2.03503E+01 1.62759E+01
 -1       494 5.00000E+00 2.04730E+00 7.21533E+00
 -1       495 5.00000E+00-3.86939E+00 7.68000E+00
 -1       496 5.00000E+00 1.24994E+00 3.77961E+01
 -1       497 5.00000E+00-7.46698E+00 1.37395E+01
 -1       498 5.00000E+00-1.70930E+01 2.69538E+01
 -1       499 5.00000E+00-1.43720E+01 2.73703E+01
 -1       500 5.00000E+00-1.05837E+01 2.84699E+01
 -1       501 5.00000E+00-7.70561E+00 3.12282E+01
 -1       502 5.00000E+00-6.75992E+00 3.54124E+01
 -1       503 5.00000E+00-1.05985E+01 1.68266E+01
 -1       504 5.00000E+00-1.51360E+01 1.83102E+01
 -1       505 5.00000E+00-1.78512E+01 1.74445E+01
 -1       506 5.00000E+00-7.61544E+00 6.89761E+00
 -1       507 5.00000E+00-7.03284E+00 9.27299E+00
 -1       508 5.00000E+00 6.94984E+00 3.35506E+01
 -1       509 5.00000E+00 8.90555E+00 2.96072E+01
 -1       510 5.00000E+00 1.30870E+01 2.69485E+01
 -1       511 5.00000E+00 1.65083E+01 2.67880E+01
 -1       512 5.00000E+00 1.96533E+01 2.81924E+01
 -1       513 5.00000E+00 1.98310E+01 1.66873E+01
 -1       514 5.00000E+00 1.72411E+01 1.79784E+01
 -1       515 5.00000E+00 1.25495E+01 1.78164E+01
 -1       516 5.00000E+00 8.91347E+00 1.56992E+01
 -1       517 5.00000E+00 6.95433E+00 1.20671E+01
 -1       518 5.00000E+00 7.48030E+00 8.11513E+00
 -1       519 5.00000E+00-1.15746E+01 4.27749E+01
 -1       520 5.00000E+00-1.21649E+01 1.89742E+01
 -1       521 5.00000E+00 5.05486E+00 3.61196E+01
 -1       522 5.00000E+00 1.00081E+01 2.71700E+01
 -1       523 5.00000E+00-5.74498E+00 3.29523E+01
 -1       524 5.00000E+00-8.25120E+00 2.88512E+01
 -1       525 5.00000E+00-1.20037E+01 2.66016E+01
 -1       526 5.00000E+00-8.06918E+00 1.63586E+01
 -1       527 5.00000E+00 5.27041E+00 9.82223E+00
 -1       528 5.00000E+00 6.69188E+00 1.45729E+01
 -1       529 5.00000E+00 9.97170E+00 1.80346E+01
 -1       530 5.00000E+00 1.46774E+01 1.92189E+01
 -1       531 5.00000E+00-5.33004E+00 1.16235E+01
 -1       532 5.00000E+00 9.80064E+00 4.00684E+01
 -1       533 5.00000E+00 7.60989E+00 3.87104E+01
 -1       534 5.00000E+00 6.62158E+00 3.09850E+01
 -1       535 5.00000E+00 7.72854E+00 6.22045E+00
 -1       536 5.00000E+00 9.47904E+00 5.00262E+00
 -1       537 5.00000E+00-1.74412E+01 2.03386E+01
 -1       538 5.00000E+00 4.60105E+00 3.29172E+01
 -1       539 5.00000E+00 1.71458E+01 2.07917E+01
 -1       540 5.00000E+00-1.71852E+01 2.34847E+01
 -1       541 5.00000E+00 1.45230E+01 2.46836E+01
 -1       542 5.00000E+00-1.43089E+01 2.47414E+01
 -1       543 5.00000E+00 1.70056E+01 2.36478E+01
 -1       544 5.00000E+00 5.66126E+00 7.00017E+00
 -1       545 5.00000E+00-3.99537E+00 3.55378E+01
 -1       546 5.00000E+00-9.30235E+00 1.88325E+01
 -1       547 5.00000E+00 6.77119E+00 2.78410E+01
 -1       548 5.00000E+00-5.26401E+00 2.97285E+01
 -1       549 5.00000E+00 1.72777E-01 1.22643E+01
 -1       550 5.00000E+00-4.70704E+00 1.53379E+01
 -1       551 5.00000E+00-9.36647E+00 2.65836E+01
 -1       552 5.00000E+00 4.52624E+00 1.29533E+01
 -1       553 5.00000E+00-1.03119E+00 3.56137E+01
 -1       554 5.00000E+00 6.81548E+00 1.76201E+01
 -1       555 5.00000E+00 1.18951E+01 2.04072E+01
 -1       556 5.00000E+00 1.75701E+00 3.40870E+01
 -1       557 5.00000E+00 1.15005E+01 2.39461E+01
 -1       558 5.00000E+00-1.44454E+01 2.14292E+01
 -1       559 5.00000E+00-1.91864E+00 3.21685E+01
 -1       560 5.00000E+00-9.87489E+00 2.28386E+01
 -1       561 5.00000E+00 2.93162E+00 2.99130E+01
 -1       562 5.00000E+00 1.44732E+01 2.20673E+01
 -1       563 5.00000E+00-6.03735E+00 1.91131E+01
 -1       564 5.00000E+00-6.29588E+00 2.62090E+01
 -1       565 5.00000E+00 3.50188E+00 1.60366E+01
 -1       566 5.00000E+00 8.05609E+00 2.12752E+01
 -1       567 5.00000E+00 8.07817E+00 2.49359E+01
 -1       568 5.00000E+00-1.07296E+00 1.83551E+01
 -1       569 5.00000E+00 4.08878E+00 2.47401E+01
 -1       570 5.00000E+00-1.52437E+00 2.69066E+01
 -1       571 5.00000E+00-4.02010E+00 2.26653E+01
 -1       572 5.00000E+00 3.65689E+00 2.01032E+01
 -1       573 5.00000E+00 2.32810E-01 2.25532E+01
 -1       574 2.72730E+00 1.86454E+01 3.33535E+01
 -1       575 1.57489E+00 1.79473E+01 3.77044E+01
 -1       576 1.41083E+00 1.65581E+01 3.86841E+01
 -1       577 2.38209E+00 1.48928E+01 3.89986E+01
 -1       578 2.46631E+00 1.28112E+01 3.83480E+01
 -1       579 2.48858E+00 1.14696E+01 3.68805E+01
 -1       580 2.49376E+00 1.10000E+01 3.50003E+01
 -1       581 2.49019E+00 1.14610E+01 3.31358E+01
 -1       582 2.47321E+00 1.27284E+01 3.17076E+01
 -1       583 2.42056E+00 1.44932E+01 3.10322E+01